Siesta Version  : v4.1-b4
Architecture    : unknown
Compiler version: ifort (IFORT) 19.1.1.217 20200306
Compiler flags  : mpifort -fPIC -O2 -xCore-AVX512 -ftz -fp-speculation=safe -fp-model source
PP flags        : -DFC_HAVE_ABORT -DF2003 -DMPI -DCDF -DNCDF -DNCDF_4 -DNCDF_PARALLEL -I/cvmfs//soft.computecanada.ca/easybuild/software/2020/avx512/MPI/intel2020/openmpi4/netcdf-fortran-mpi/4.5.2/include
Libraries       : libncdf.a libfdict.a -Wl,-Bstatic -Wl,--start-group -lmkl_scalapack_lp64 -lmkkl_blacs_openmpi_lp64 -lmkl_intel_lp64 -lmkl_sequential -lmkl_core -Wl,--end-group -Wl,-Bdynamic -lnetcdff
PARALLEL version
NetCDF support
NetCDF-4 support
NetCDF-4 MPI-IO support

* Running on 160 nodes in parallel
>> Start of run:   3-JUL-2021  17:26:11

                           ***********************       
                           *  WELCOME TO SIESTA  *       
                           ***********************       

reinit: Reading from standard input
reinit: Dumped input in INPUT_TMP.72477
************************** Dump of input data file ****************************
SystemName          ag12
SystemLabel         ag12
NumberOfAtoms       12
NumberOfSpecies     1
LatticeConstant     1.0 Ang
%block LatticeVectors < cell.coor
%block ChemicalSpeciesLabel
1	47	Ag
%endblock ChemicalSpeciesLabel
%block MM.Potentials
1       1       Grimme  73.00   2.720   # AgAg  Grimme  C_6     Distance
%endblock WW.Potentials
MM.Grimme.S6 1.0
AtomicCoordinatesFormat  Ang
%block AtomicCoordinatesAndAtomicSpecies < at.coor
WriteDM.NetCDF .true.
WriteDMHS.NetCDF .true.
WriteDenchar .true.
WriteDM .true.
WriteKpoints .true.
WriteWaveFunctions .true.
WriteEigenvalues .true.
LongOutput .true.
KgridCutoff 10 Ang
%block WavefuncKpoints
0.000   0.000   0.000   from -10 to 10
%endblock WaveFuncKpoints
SpinPolarized .false.
DM.UseSaveDM
MD.TypeOfRun  CG
MD.NumCGsteps 200
NetCharge = 0
MD.VariableCell .false.
MD.MaxForceTol 0.01 eV/Ang
SCF.DM.Tolerance 0.00001
SolutionMethod diagon
XC.functional GGA
XC.authors PBE
PAO.EnergyShift 0.001 Ry
DM.NumberPulay 7
DM.MixingWeight 0.1
MaxSCFIterations 500
WriteMullikenPop 1
WriteCoorXmol .true.
UseSaveData .true.
Diag.Memory 5.0
WriteMDXmol .true.
COOP.Write .true.
%block PolarizationGrids
4 4 15
4 4 15
4 4 15
%endblock PolarizationGrids
BornCharge .true.
SaveRho .true.
SaveElectrostaticPotential .true.
SaveBaderCharge .true.
************************** End of input data file *****************************

reinit: -----------------------------------------------------------------------
reinit: System Name: ag12
reinit: -----------------------------------------------------------------------
reinit: System Label: ag12
reinit: -----------------------------------------------------------------------
Reading two-body potentials
Grimme - two-body potential between 1 and 1

initatom: Reading input for the pseudopotentials and atomic orbitals ----------
Species number:   1 Atomic number:   47 Label: Ag
 
Ground state valence configuration:   5s01  4d10
Reading pseudopotential information in formatted form from Ag.psf

Valence configuration for pseudopotential generation:
5s( 1.00) rc: 2.49
5p( 0.00) rc: 2.72
4d(10.00) rc: 2.49
4f( 0.00) rc: 2.49
For Ag, standard SIESTA heuristics set lmxkb to 3
 (one more than the basis l, including polarization orbitals).
Use PS.lmax or PS.KBprojectors blocks to override.

<basis_specs>
===============================================================================
Ag                   Z=  47    Mass=  107.87        Charge= 0.17977+309
Lmxo=2 Lmxkb= 3    BasisType=split      Semic=F
L=0  Nsemic=0  Cnfigmx=5
          n=1  nzeta=2  polorb=1
            splnorm:   0.15000    
               vcte:    0.0000    
               rinn:    0.0000    
               qcoe:    0.0000    
               qyuk:    0.0000    
               qwid:   0.10000E-01
                rcs:    0.0000      0.0000    
            lambdas:    1.0000      1.0000    
L=1  Nsemic=0  Cnfigmx=5
L=2  Nsemic=0  Cnfigmx=4
          n=1  nzeta=2  polorb=0
            splnorm:   0.15000    
               vcte:    0.0000    
               rinn:    0.0000    
               qcoe:    0.0000    
               qyuk:    0.0000    
               qwid:   0.10000E-01
                rcs:    0.0000      0.0000    
            lambdas:    1.0000      1.0000    
-------------------------------------------------------------------------------
L=0  Nkbl=1  erefs: 0.17977+309
L=1  Nkbl=1  erefs: 0.17977+309
L=2  Nkbl=1  erefs: 0.17977+309
L=3  Nkbl=1  erefs: 0.17977+309
===============================================================================
</basis_specs>

atom: Called for Ag                    (Z =  47)

read_vps: Pseudopotential generation method:
read_vps: ATM3      Troullier-Martins                       
Total valence charge:   11.00000

read_vps: Pseudopotential includes a core correction:
read_vps: Pseudo-core for xc-correction

xc_check: Exchange-correlation functional:
xc_check: GGA Perdew, Burke & Ernzerhof 1996
V l=0 = -2*Zval/r beyond r=  2.7178
V l=1 = -2*Zval/r beyond r=  2.8931
V l=2 = -2*Zval/r beyond r=  2.7178
V l=3 = -2*Zval/r beyond r=  2.7178
All V_l potentials equal beyond r=  2.6507
This should be close to max(r_c) in ps generation
All pots = -2*Zval/r beyond r=  2.8931

VLOCAL1: 99.0% of the norm of Vloc inside      6.178 Ry
VLOCAL1: 99.9% of the norm of Vloc inside     14.079 Ry
atom: Maximum radius for 4*pi*r*r*local-pseudopot. charge    3.19739
atom: Maximum radius for r*vlocal+2*Zval:    2.82168
GHOST: No ghost state for L =  0
GHOST: No ghost state for L =  1
GHOST: No ghost state for L =  2
GHOST: No ghost state for L =  3

KBgen: Kleinman-Bylander projectors: 
   l= 0   rc=  3.079709   el= -0.293375   Ekb=  3.434366   kbcos=  0.251448
   l= 1   rc=  3.237612   el= -0.056278   Ekb=  1.807669   kbcos=  0.207469
   l= 2   rc=  2.821684   el= -0.581304   Ekb= -7.533464   kbcos= -0.722192
   l= 3   rc=  3.237612   el=  0.003123   Ekb= -2.534780   kbcos= -0.012675

KBgen: Total number of  Kleinman-Bylander projectors:   16
atom: -------------------------------------------------------------------------

atom: SANKEY-TYPE ORBITALS:
atom: Selected multiple-zeta basis: split     

SPLIT: Orbitals with angular momentum L= 0

SPLIT: Basis orbitals for state 5s

SPLIT: PAO cut-off radius determined from an
SPLIT: energy shift=  0.001000 Ry

   izeta = 1
                 lambda =    1.000000
                     rc =    9.972658
                 energy =   -0.292494
                kinetic =    0.243163
    potential(screened) =   -0.535658
       potential(ionic) =   -7.377471

   izeta = 2
                 rmatch =    7.115994
              splitnorm =    0.150000
                 energy =   -0.250934
                kinetic =    0.402412
    potential(screened) =   -0.653346
       potential(ionic) =   -8.151718

SPLIT: Orbitals with angular momentum L= 2

SPLIT: Basis orbitals for state 4d

SPLIT: PAO cut-off radius determined from an
SPLIT: energy shift=  0.001000 Ry

   izeta = 1
                 lambda =    1.000000
                     rc =    5.753701
                 energy =   -0.580448
                kinetic =    5.951701
    potential(screened) =   -6.532149
       potential(ionic) =  -18.249975

   izeta = 2
                 rmatch =    2.585275
              splitnorm =    0.150000
                 energy =   -0.258563
                kinetic =    8.224956
    potential(screened) =   -8.483519
       potential(ionic) =  -21.185890

POLgen: Perturbative polarization orbital with L=  1

POLgen: Polarization orbital for state 5s

   izeta = 1
                     rc =    9.972658
                 energy =   -0.049357
                kinetic =    0.429344
    potential(screened) =   -0.478700
       potential(ionic) =   -6.663768
atom: Total number of Sankey-type orbitals: 15

atm_pop: Valence configuration (for local Pseudopot. screening):
 5s( 1.00)                                                            
 5p( 0.00)                                                            
 4d(10.00)                                                            
Vna: chval, zval:   11.00000  11.00000

Vna:  Cut-off radius for the neutral-atom potential:   9.972658
comcore: Pseudo-core radius Rcore=  3.954440

atom: _________________________________________________________________________

prinput: Basis input ----------------------------------------------------------

PAO.BasisType split     

%block ChemicalSpeciesLabel
    1   47 Ag                      # Species index, atomic number, species label
%endblock ChemicalSpeciesLabel

%block PAO.Basis                 # Define Basis set
Ag                    2                    # Species label, number of l-shells
 n=5   0   2 P   1                   # n, l, Nzeta, Polarization, NzetaPol
   9.973      7.116   
   1.000      1.000   
 n=4   2   2                         # n, l, Nzeta 
   5.754      2.585   
   1.000      1.000   
%endblock PAO.Basis

prinput: ----------------------------------------------------------------------

Dumping basis to NetCDF file Ag.ion.nc
coor:   Atomic-coordinates input format  =     Cartesian coordinates
coor:                                          (in Angstroms)

siesta: Atomic coordinates (Bohr) and species
siesta:     23.19280  21.74919  21.69713  1        1
siesta:     27.57807  23.58805  20.12584  1        2
siesta:     28.09087  28.89625  20.16307  1        3
siesta:     27.64637  26.17905  24.49716  1        4
siesta:     22.73735  25.93823  25.67265  1        5
siesta:     20.50426  21.25888  26.03782  1        6
siesta:     25.81725  21.78262  26.05117  1        7
siesta:     23.41846  26.66491  20.55204  1        8
siesta:     24.80520  30.38153  23.70185  1        9
siesta:     23.50825  17.53000  24.55123  1       10
siesta:     18.99202  24.58288  22.54576  1       11
siesta:     31.84043  25.89808  21.60557  1       12

siesta: System type = molecule  

initatomlists: Number of atoms, orbitals, and projectors:     12   180   192

coxmol: Writing XMOL coordinates into file ag12.xyz                                                            

siesta: ******************** Simulation parameters ****************************
siesta:
siesta: The following are some of the parameters of the simulation.
siesta: A complete list of the parameters used, including default values,
siesta: can be found in file out.fdf
siesta:
redata: Spin configuration                          = none
redata: Number of spin components                   = 1
redata: Time-Reversal Symmetry                      = T
redata: Spin-spiral                                 = F
redata: Long output                                 =   T
redata: Number of Atomic Species                    =        1
redata: Charge density info will appear in .RHO file
redata: Write Mulliken Pop.                         = Atomic and Orbital charges
redata: Matel table size (NRTAB)                    =     1024
redata: Mesh Cutoff                                 =   300.0000 Ry
redata: Net charge of the system                    =     0.0000 |e|
redata: Min. number of SCF Iter                     =        0
redata: Max. number of SCF Iter                     =      500
redata: SCF convergence failure will abort job
redata: SCF mix quantity                            = Hamiltonian
redata: Mix DM or H after convergence               =   F
redata: Recompute H after scf cycle                 =   F
redata: Mix DM in first SCF step                    =   T
redata: Write Pulay info on disk                    =   F
redata: New DM Mixing Weight                        =     0.1000
redata: New DM Occupancy tolerance                  = 0.000000000001
redata: No kicks to SCF
redata: DM Mixing Weight for Kicks                  =     0.5000
redata: Require Harris convergence for SCF          =   F
redata: Harris energy tolerance for SCF             =     0.000100 eV
redata: Require DM convergence for SCF              =   T
redata: DM tolerance for SCF                        =     0.000010
redata: Require EDM convergence for SCF             =   F
redata: EDM tolerance for SCF                       =     0.001000 eV
redata: Require H convergence for SCF               =   T
redata: Hamiltonian tolerance for SCF               =     0.001000 eV
redata: Require (free) Energy convergence for SCF   =   F
redata: (free) Energy tolerance for SCF             =     0.000100 eV
redata: Using Saved Data (generic)                  =   T
redata: Use continuation files for DM               =   T
redata: Neglect nonoverlap interactions             =   F
redata: Method of Calculation                       = Diagonalization
redata: Electronic Temperature                      =   299.9869 K
redata: Fix the spin of the system                  =   F
redata: Dynamics option                             = CG coord. optimization
redata: Variable cell                               =   F
redata: Use continuation files for CG               =   T
redata: Max atomic displ per move                   =     0.1058 Ang
redata: Maximum number of CG moves                  =      200
redata: Force tolerance                             =     0.0100 eV/Ang
mix.SCF: Pulay mixing                            = Pulay
mix.SCF:    Variant                              = stable
mix.SCF:    History steps                        = 7
mix.SCF:    Linear mixing weight                 =     0.100000
mix.SCF:    Mixing weight                        =     0.100000
mix.SCF:    SVD condition                        = 0.1000E-07
redata: Save all siesta data in one NC              =   F
redata: ***********************************************************************

%block SCF.Mixers
  Pulay
%endblock SCF.Mixers

%block SCF.Mixer.Pulay
  # Mixing method
  method pulay
  variant stable

  # Mixing options
  weight 0.1000
  weight.linear 0.1000
  history 7
%endblock SCF.Mixer.Pulay
 
DM_history_depth set to one: no extrapolation allowed by default for geometry relaxation
Size of DM history Fstack: 1
Total number of electrons:   132.000000
Total ionic charge:   132.000000

* ProcessorY, Blocksize:   10   1


* Orbital distribution balance (max,min):     2     1

 Kpoints in:            1 . Kpoints trimmed:            1

siesta: k-point coordinates (Bohr**-1) and weights:
siesta:    1    0.000000    0.000000    0.000000       1.000000

siesta: k-grid: Number of k-points =     1
siesta: k-grid: Cutoff (effective) =    50.000 Ang
siesta: k-grid: Supercell and displacements
siesta: k-grid:    1   0   0      0.000
siesta: k-grid:    0   1   0      0.000
siesta: k-grid:    0   0   1      0.000
 
diag: Algorithm                                     = D&C
diag: Parallel over k                               =   F
diag: Use parallel 2D distribution                  =   T
diag: Parallel block-size                           = 1
diag: Parallel distribution                         =    10 x    16
diag: Used triangular part                          = Lower
diag: Absolute tolerance                            =  0.100E-15
diag: Orthogonalization factor                      =  0.100E-05
diag: Memory factor                                 =  5.0000
Using LatticeConstant from fdf file for WaveFuncKPointsScale:    1.889727 Bohr
Beware any cell changes by the end of the run
 
 
ts: **************************************************************
ts: Save H and S matrices                           =    F
ts: Save DM and EDM matrices                        =    F
ts: Fix Hartree potential                           =    F
ts: Only save the overlap matrix S                  =    F
ts: **************************************************************
 
************************ Begin: TS CHECKS AND WARNINGS ************************
************************ End: TS CHECKS AND WARNINGS **************************


                     ====================================
                        Begin CG opt. move =      0
                     ====================================

outcoor: Atomic coordinates (Ang):                          
   12.27309522   11.50917079   11.48162141   1       1  Ag
   14.59368185   12.48225562   10.65013358   1       2  Ag
   14.86504036   15.29122975   10.66983291   1       3  Ag
   14.62982220   13.85335108   12.96333352   1       4  Ag
   12.03208043   13.72591236   13.58537543   1       5  Ag
   10.85038114   11.24970928   13.77861318   1       6  Ag
   13.66189532   11.52686199   13.78568228   1       7  Ag
   12.39251131   14.11045915   10.87566795   1       8  Ag
   13.12634227   16.07720526   12.54247342   1       9  Ag
   12.44002490    9.27647245   12.99194726   1      10  Ag
   10.05014106   13.00869491   11.93069663   1      11  Ag
   16.84922102   13.70466834   11.43317020   1      12  Ag

outcell: Unit cell vectors (Ang):
      100.000000    0.000000    0.000000
        0.000000  100.000000    0.000000
        0.000000    0.000000  100.000000

outcell: Cell vector modules (Ang)   :  100.000000  100.000000  100.000000
outcell: Cell angles (23,13,12) (deg):     90.0000     90.0000     90.0000
outcell: Cell volume (Ang**3)        :1000000.0000
<dSpData1D:S at geom step 0
  <sparsity:sparsity for geom step 0
    nrows_g=180 nrows=2 sparsity=.0110 nnzs=355, refcount: 7>
  <dData1D:(new from dSpData1D) n=355, refcount: 1>
refcount: 1>
new_DM -- step:     1
Initializing Density Matrix...
 
Attempting to read DM from file... Succeeded...
DM from file:
<dSpData2D:IO-DM: ag12.DM
  <sparsity:IO-DM: ag12.DM
    nrows_g=180 nrows=2 sparsity=.0108 nnzs=350, refcount: 1>
  <dData2D:(new from dSpData2D) n=350 m=1, refcount: 1>
refcount: 1>
DM to be used:
<dSpData2D:Re-structured SpM
  <sparsity:sparsity for geom step 0
    nrows_g=180 nrows=2 sparsity=.0110 nnzs=355, refcount: 8>
  <dData2D:(new in restruct) n=355 m=1, refcount: 1>
refcount: 1>
Note: For starting DM, Qtot, Tr[D*S] =        132.00000000        132.69072720
No. of atoms with KB's overlaping orbs in proc 0. Max # of overlaps:      12     155
New grid distribution:   1
           1       1:  540    1:   54    1:   34
           2       1:  540    1:   54   35:   68
           3       1:  540    1:   54   69:  102
           4       1:  540    1:   54  103:  136
           5       1:  540    1:   54  137:  170
           6       1:  540    1:   54  171:  204
           7       1:  540    1:   54  205:  238
           8       1:  540    1:   54  239:  272
           9       1:  540    1:   54  273:  306
          10       1:  540    1:   54  307:  340
          11       1:  540    1:   54  341:  374
          12       1:  540    1:   54  375:  408
          13       1:  540    1:   54  409:  441
          14       1:  540    1:   54  442:  474
          15       1:  540    1:   54  475:  507
          16       1:  540    1:   54  508:  540
          17       1:  540   55:  108    1:   34
          18       1:  540   55:  108   35:   68
          19       1:  540   55:  108   69:  102
          20       1:  540   55:  108  103:  136
          21       1:  540   55:  108  137:  170
          22       1:  540   55:  108  171:  204
          23       1:  540   55:  108  205:  238
          24       1:  540   55:  108  239:  272
          25       1:  540   55:  108  273:  306
          26       1:  540   55:  108  307:  340
          27       1:  540   55:  108  341:  374
          28       1:  540   55:  108  375:  408
          29       1:  540   55:  108  409:  441
          30       1:  540   55:  108  442:  474
          31       1:  540   55:  108  475:  507
          32       1:  540   55:  108  508:  540
          33       1:  540  109:  162    1:   34
          34       1:  540  109:  162   35:   68
          35       1:  540  109:  162   69:  102
          36       1:  540  109:  162  103:  136
          37       1:  540  109:  162  137:  170
          38       1:  540  109:  162  171:  204
          39       1:  540  109:  162  205:  238
          40       1:  540  109:  162  239:  272
          41       1:  540  109:  162  273:  306
          42       1:  540  109:  162  307:  340
          43       1:  540  109:  162  341:  374
          44       1:  540  109:  162  375:  408
          45       1:  540  109:  162  409:  441
          46       1:  540  109:  162  442:  474
          47       1:  540  109:  162  475:  507
          48       1:  540  109:  162  508:  540
          49       1:  540  163:  216    1:   34
          50       1:  540  163:  216   35:   68
          51       1:  540  163:  216   69:  102
          52       1:  540  163:  216  103:  136
          53       1:  540  163:  216  137:  170
          54       1:  540  163:  216  171:  204
          55       1:  540  163:  216  205:  238
          56       1:  540  163:  216  239:  272
          57       1:  540  163:  216  273:  306
          58       1:  540  163:  216  307:  340
          59       1:  540  163:  216  341:  374
          60       1:  540  163:  216  375:  408
          61       1:  540  163:  216  409:  441
          62       1:  540  163:  216  442:  474
          63       1:  540  163:  216  475:  507
          64       1:  540  163:  216  508:  540
          65       1:  540  217:  270    1:   34
          66       1:  540  217:  270   35:   68
          67       1:  540  217:  270   69:  102
          68       1:  540  217:  270  103:  136
          69       1:  540  217:  270  137:  170
          70       1:  540  217:  270  171:  204
          71       1:  540  217:  270  205:  238
          72       1:  540  217:  270  239:  272
          73       1:  540  217:  270  273:  306
          74       1:  540  217:  270  307:  340
          75       1:  540  217:  270  341:  374
          76       1:  540  217:  270  375:  408
          77       1:  540  217:  270  409:  441
          78       1:  540  217:  270  442:  474
          79       1:  540  217:  270  475:  507
          80       1:  540  217:  270  508:  540
          81       1:  540  271:  324    1:   34
          82       1:  540  271:  324   35:   68
          83       1:  540  271:  324   69:  102
          84       1:  540  271:  324  103:  136
          85       1:  540  271:  324  137:  170
          86       1:  540  271:  324  171:  204
          87       1:  540  271:  324  205:  238
          88       1:  540  271:  324  239:  272
          89       1:  540  271:  324  273:  306
          90       1:  540  271:  324  307:  340
          91       1:  540  271:  324  341:  374
          92       1:  540  271:  324  375:  408
          93       1:  540  271:  324  409:  441
          94       1:  540  271:  324  442:  474
          95       1:  540  271:  324  475:  507
          96       1:  540  271:  324  508:  540
          97       1:  540  325:  378    1:   34
          98       1:  540  325:  378   35:   68
          99       1:  540  325:  378   69:  102
         100       1:  540  325:  378  103:  136
         101       1:  540  325:  378  137:  170
         102       1:  540  325:  378  171:  204
         103       1:  540  325:  378  205:  238
         104       1:  540  325:  378  239:  272
         105       1:  540  325:  378  273:  306
         106       1:  540  325:  378  307:  340
         107       1:  540  325:  378  341:  374
         108       1:  540  325:  378  375:  408
         109       1:  540  325:  378  409:  441
         110       1:  540  325:  378  442:  474
         111       1:  540  325:  378  475:  507
         112       1:  540  325:  378  508:  540
         113       1:  540  379:  432    1:   34
         114       1:  540  379:  432   35:   68
         115       1:  540  379:  432   69:  102
         116       1:  540  379:  432  103:  136
         117       1:  540  379:  432  137:  170
         118       1:  540  379:  432  171:  204
         119       1:  540  379:  432  205:  238
         120       1:  540  379:  432  239:  272
         121       1:  540  379:  432  273:  306
         122       1:  540  379:  432  307:  340
         123       1:  540  379:  432  341:  374
         124       1:  540  379:  432  375:  408
         125       1:  540  379:  432  409:  441
         126       1:  540  379:  432  442:  474
         127       1:  540  379:  432  475:  507
         128       1:  540  379:  432  508:  540
         129       1:  540  433:  486    1:   34
         130       1:  540  433:  486   35:   68
         131       1:  540  433:  486   69:  102
         132       1:  540  433:  486  103:  136
         133       1:  540  433:  486  137:  170
         134       1:  540  433:  486  171:  204
         135       1:  540  433:  486  205:  238
         136       1:  540  433:  486  239:  272
         137       1:  540  433:  486  273:  306
         138       1:  540  433:  486  307:  340
         139       1:  540  433:  486  341:  374
         140       1:  540  433:  486  375:  408
         141       1:  540  433:  486  409:  441
         142       1:  540  433:  486  442:  474
         143       1:  540  433:  486  475:  507
         144       1:  540  433:  486  508:  540
         145       1:  540  487:  540    1:   34
         146       1:  540  487:  540   35:   68
         147       1:  540  487:  540   69:  102
         148       1:  540  487:  540  103:  136
         149       1:  540  487:  540  137:  170
         150       1:  540  487:  540  171:  204
         151       1:  540  487:  540  205:  238
         152       1:  540  487:  540  239:  272
         153       1:  540  487:  540  273:  306
         154       1:  540  487:  540  307:  340
         155       1:  540  487:  540  341:  374
         156       1:  540  487:  540  375:  408
         157       1:  540  487:  540  409:  441
         158       1:  540  487:  540  442:  474
         159       1:  540  487:  540  475:  507
         160       1:  540  487:  540  508:  540

InitMesh: MESH =  1080 x  1080 x  1080 =  1259712000
InitMesh: (bp) =   540 x   540 x   540 =   157464000
InitMesh: Mesh cutoff (required, used) =   300.000   322.366 Ry
ExtMesh (bp) on 0 =   656 x   170 x   150 =    16728000
New grid distribution:   2
           1       1:  102  100:  316  179:  304
           2      62:   71    1:   63    1:   55
           3      62:   73    1:   60   75:   78
           4     239:  540    1:   58   84:  235
           5     109:  269  321:  430  384:  540
           6       1:   59    1:   67   79:   86
           7      60:   73    1:   67   79:   81
           8     239:  540    1:   29  236:  540
           9     109:  269  100:  209  384:  540
          10     239:  540   30:   58  236:  540
          11       1:   61   64:   72    1:   57
          12       1:   60   64:   72   68:   72
          13     379:  540  321:  430  151:  306
          14      74:  238    1:   58  263:  540
          15      79:  540   59:   64   52:   62
          16      72:   78    1:   64   57:   62
          17       1:   63   73:   80   63:   67
          18      84:  540   82:   90   64:   72
          19     107:  540   59:   99   84:  235
          20     103:  269  100:  316   73:  149
          21      79:  540   64:   71   76:   83
          22       1:   63   73:   80   68:   72
          23     270:  377  100:  320  190:  306
          24     107:  540   59:   79  236:  540
          25     107:  540   80:   99  236:  540
          26     270:  377  100:  320  307:  423
          27      80:  540   72:   79   76:   83
          28      74:   78    1:   71   77:   83
          29       1:   59    1:   67   87:  540
          30     270:  377  100:  320  424:  540
          31      82:  540   73:   79   51:   59
          32       1:   60   64:   72   64:   67
          33     202:  540   90:  540    1:   20
          34      61:   71    1:   63   64:   66
          35      65:   75   87:  540   66:   72
          36       1:  102  100:  316   73:  178
          37      74:  238    1:   58   84:  262
          38     378:  540  100:  210  151:  306
          39       1:   64   73:   80    1:   56
          40      72:   77    1:   63   68:   72
          41      79:  540    1:   64    1:   51
          42       1:  108  100:  320  305:  422
          43      72:   78    1:   64    1:   56
          44      72:   77    1:   63   63:   67
          45     378:  540  100:  210  385:  540
          46       1:   61   68:   99   84:  540
          47       1:   61    1:   63   58:   63
          48      62:   73    1:   68   73:   74
          49      76:  201   90:  540    1:   46
          50     202:  540   90:  314   21:   59
          51      76:   83   82:  540   66:   72
          52      74:   78    1:   71   73:   76
          53      74:  106   59:   99   87:  540
          54     103:  269  100:  207  150:  304
          55      81:  540   77:   81   64:   72
          56      74:   79   72:   99   77:   83
          57      82:  540   73:   89    1:   50
          58     109:  269  100:  320  305:  383
          59       1:   60    1:   63   64:   68
          60      62:   73   68:   99   79:   81
          61      60:   73    1:   58   82:  540
          62       1:  108  100:  320  423:  540
          63      79:  540   65:   68   54:   62
          64      63:   73   77:   99   75:   78
          65      79:  540   69:   72   54:   62
          66      84:  540   91:  540   64:   72
          67      63:   73   69:   99   73:   74
          68     378:  540  100:  320   73:  150
          69      79:  540    1:   58   52:   62
          70     103:  269  208:  316  150:  304
          71      81:  540   73:   76   64:   72
          72      74:   79   72:   99   73:   76
          73      79:  540    1:   63   76:   83
          74     378:  540  100:  320  307:  384
          75      81:  540   73:   81   60:   63
          76      64:   75   81:   86   54:   62
          77     109:  269  210:  320  384:  540
          78       1:   63   81:  540   55:   62
          79      78:  540   59:   63   66:   72
          80      76:   81   73:   89   55:   59
          81       1:   63   81:  540    1:   54
          82      76:   83   82:  540   60:   65
          83      62:   71   58:   63   56:   63
          84     270:  377  100:  320   73:  189
          85       1:   61    1:   63    1:   57
          86     378:  540  211:  320  151:  306
          87      79:  540   64:   68   66:   72
          88      61:   71   57:   63   67:   72
          89     109:  269  317:  428  150:  304
          90      79:  540   65:   72    1:   53
          91      65:   75   81:  540   63:   65
          92      65:   75   81:   86   66:   72
          93     378:  540  211:  320  385:  540
          94      78:  540    1:   58   66:   72
          95       1:   60    1:   63   69:   72
          96      62:   71   64:   68   55:   63
          97      79:  540   69:   72   66:   72
          98     202:  540  315:  540   21:   59
          99      62:   73   61:   68   75:   78
         100     109:  269  317:  540   73:  149
         101       1:   64   81:  540   63:   67
         102      79:  540   64:   72   63:   65
         103       1:  108  317:  540  189:  304
         104      62:   71   69:   72   55:   63
         105     270:  378  321:  540  190:  306
         106     379:  540  321:  540  307:  384
         107       1:   61    1:   68   76:   78
         108      65:   75   77:   80   55:   62
         109       1:   64   81:  540   68:   72
         110     270:  378  321:  540  424:  540
         111       1:   61    1:   68   73:   75
         112      63:   73   69:   76   75:   78
         113       1:   61   68:   99   79:   83
         114      84:  540   82:  540   60:   63
         115      65:   75   73:   76   55:   62
         116       1:  108  317:  540   73:  188
         117     270:  378  321:  540   73:  189
         118      62:   73   76:   99   82:  540
         119       1:   62   69:   99   73:   75
         120      64:   75   73:   76   66:   72
         121      79:  540    1:   71   73:   75
         122     270:  378  321:  540  307:  423
         123       1:   62   69:   99   76:   78
         124      72:   78   65:   72   57:   62
         125      78:  540    1:   63   63:   65
         126       1:  108  321:  540  423:  540
         127      76:   81   73:   89    1:   54
         128      64:   75   77:   80   66:   72
         129      62:   71   64:   72    1:   54
         130      76:  201   90:  540   47:   59
         131      61:   71   64:   68   67:   72
         132     379:  540  321:  540   73:  150
         133      80:  540   80:   99   76:   83
         134     109:  269  429:  540  150:  304
         135      65:   75   73:   80    1:   54
         136      72:   78   64:   72   68:   72
         137      60:   73   59:   67   82:  540
         138       1:  108  321:  540  305:  422
         139      62:   71    1:   57   56:   63
         140      76:   80   73:   81   60:   66
         141     109:  269  431:  540  384:  540
         142      64:   75   87:  540   54:   62
         143      74:  106   59:   99   84:   86
         144      72:   78   64:   72   63:   67
         145     379:  540  321:  430  385:  540
         146      64:   75   81:  540    1:   53
         147      61:   71    1:   56   67:   72
         148      61:   71   64:   72   64:   66
         149      62:   73   68:   75   82:  540
         150     379:  540  431:  540  151:  306
         151       1:   61   64:   72   58:   63
         152      64:   75   73:   80   63:   65
         153      82:  540   80:   89   51:   59
         154     109:  269  321:  540  305:  383
         155      72:   78   65:   72    1:   56
         156      76:   80   73:   81   67:   72
         157     379:  540  431:  540  385:  540
         158      80:  540   72:   99   73:   75
         159       1:   64   73:   80   57:   62
         160      61:   71   69:   72   67:   72
New grid distribution:   3
           1     379:  540  251:  395  317:  391
           2      85:  540    1:   60    1:   44
           3      72:   84    1:   60    1:   52
           4     354:  540    1:  125   92:  166
           5     229:  353    1:  125   92:  203
           6     354:  540    1:   63  167:  316
           7      65:  228    1:   55   96:  233
           8       1:   53    1:   54   78:   91
           9     229:  353    1:  125  204:  316
          10      98:  540   91:  198   33:   55
          11     354:  540    1:  125  317:  391
          12       1:   53    1:   54   67:   77
          13       1:  108  396:  540  205:  316
          14       1:   91    1:  125  387:  540
          15      85:  540    1:   52   45:   63
          16       1:   55    1:   59   58:   66
          17     271:  378  396:  540  317:  428
          18      92:  228    1:   62  336:  540
          19       1:   64    1:   73   92:   96
          20       1:   64    1:   73   97:  233
          21     271:  378  251:  395  317:  428
          22      82:  540    1:   47   72:   91
          23      58:   84   77:   91    1:   42
          24      92:  228    1:  125  234:  335
          25      65:  228   56:   73   96:  233
          26      50:   71   60:   76    1:   44
          27      92:  228   63:  125  336:  540
          28     229:  353    1:  125  317:  428
          29     354:  540   63:  125  392:  540
          30     229:  353    1:  125  429:  540
          31       1:   61   92:  540   50:   63
          32       1:   54   77:   92   75:   91
          33       1:  108  251:  395  205:  316
          34      85:   97   77:  198   46:   55
          35     212:  540  100:  320   68:   91
          36       1:   71   74:  250  102:  233
          37      89:  540   61:   76    1:   45
          38     354:  540  126:  188  167:  316
          39       1:   47   55:   76   78:   91
          40      92:  228  126:  250  234:  335
          41     271:  378  396:  540  205:  316
          42       1:   62   93:  540   64:   74
          43     229:  353  126:  250  317:  428
          44      72:   88   61:   76    1:   46
          45       1:  108  396:  540  429:  540
          46     229:  353  126:  250  429:  540
          47      82:  540    1:   57   64:   71
          48      54:   71    1:   40   75:   91
          49       1:  108  251:  395  429:  540
          50       1:   47   55:   76   67:   77
          51      85:  211  100:  540   71:   91
          52     354:  540  126:  250   92:  166
          53     229:  353  126:  250   92:  203
          54      63:   84  103:  540   72:   91
          55     229:  353  126:  250  204:  316
          56      56:   71    1:   42   51:   66
          57       1:  108  396:  540  317:  428
          58       1:   55    1:   59    1:   57
          59     354:  540  126:  250  317:  391
          60       1:   54   77:   92   64:   74
          61     354:  540  188:  250  392:  540
          62       1:   91  126:  250  387:  540
          63      62:   84  103:  540   47:   63
          64       1:   57   77:   91   53:   63
          65     268:  540  199:  540    1:   19
          66      92:  228  126:  187  336:  540
          67      72:  228   74:  250   92:  108
          68       1:   49   60:   76   56:   66
          69     379:  540  251:  395   92:  166
          70      72:  228  162:  250  109:  233
          71      96:  540   86:   99   65:   91
          72      72:   84    1:   60   53:   63
          73       1:   91  126:  250  234:  386
          74      98:  540   77:   90   33:   55
          75      92:  228  188:  250  336:  540
          76      72:   81    1:   57   77:   91
          77     109:  270  251:  323  392:  540
          78       1:   91    1:  125  234:  386
          79       1:   71   74:  250   92:  101
          80      54:   71    1:   54   67:   74
          81      85:  267  199:  540    1:   28
          82      85:  211  100:  540   56:   70
          83      72:   81    1:   57   64:   76
          84     271:  378  251:  395   92:  204
          85      96:  540   77:   85   65:   91
          86     379:  540  251:  323  167:  316
          87     271:  378  251:  395  205:  316
          88      55:   84   77:   92   64:   73
          89     109:  270  251:  323  167:  316
          90     354:  540  189:  250  167:  316
          91      96:  540   77:   99   56:   64
          92      48:   71   55:   76   67:   75
          93     379:  540  251:  323  392:  540
          94     354:  540   64:  125  167:  316
          95      82:  540   48:   57   72:   91
          96      72:   88   61:   76   47:   63
          97       1:   61   92:  540    1:   49
          98     212:  540  100:  540   56:   67
          99      85:   95   77:   99   56:   73
         100       1:  108  251:  395   92:  204
         101     109:  270  251:  395   92:  166
         102     109:  270  324:  395  167:  316
         103      89:  540   58:   67   72:   91
         104      85:   95   77:   99   74:   91
         105     379:  540  324:  395  167:  316
         106      89:  540   68:   76   72:   91
         107     109:  270  251:  395  317:  391
         108      58:   84   77:   84   43:   63
         109     109:  270  324:  395  392:  540
         110     271:  378  251:  395  429:  540
         111      63:   84   93:  540   64:   71
         112      72:   88   58:   76   78:   91
         113       1:  108  251:  395  317:  428
         114     268:  540  370:  540   20:   55
         115     212:  540  321:  540   68:   91
         116      72:   88   58:   76   64:   77
         117      98:  540   77:  198    1:   32
         118     109:  270  396:  468  167:  316
         119      85:   97   77:  198    1:   45
         120      63:   84   93:  102   72:   91
         121     379:  540  396:  468  167:  316
         122     354:  540  126:  187  392:  540
         123      85:  540   53:   60   45:   63
         124      50:   71   60:   68   45:   66
         125     109:  270  396:  468  392:  540
         126     379:  540  324:  395  392:  540
         127      89:  540   58:   76   64:   71
         128      56:   71   43:   59   51:   66
         129     354:  540    1:   62  392:  540
         130      55:   84   77:   84   74:   91
         131       1:   62   93:  540   75:   91
         132     271:  378  396:  540   92:  204
         133       1:  108  396:  540   92:  204
         134      72:  228   74:  161  109:  233
         135      89:  540   61:   68   46:   63
         136      55:   84   85:   92   74:   91
         137     268:  540  199:  369   20:   55
         138      89:  540   69:   76   46:   63
         139     109:  270  396:  540  317:  391
         140      62:   84   92:  102   47:   63
         141     379:  540  396:  468  392:  540
         142     379:  540  469:  540  392:  540
         143      65:  228    1:   73   92:   95
         144      54:   71   41:   54   75:   91
         145      62:   84   92:  540    1:   46
         146      85:  267  199:  540   29:   55
         147      48:   71   66:   76   76:   91
         148     379:  540  396:  540   92:  166
         149     109:  270  396:  540   92:  166
         150     109:  270  469:  540  167:  316
         151      56:   71    1:   59    1:   50
         152      48:   71   55:   65   76:   91
         153     379:  540  469:  540  167:  316
         154       1:   49   60:   76    1:   55
         155     379:  540  396:  540  317:  391
         156      58:   84   85:   91   43:   63
         157     109:  270  469:  540  392:  540
         158     271:  378  396:  540  429:  540
         159       1:   57   77:   91    1:   52
         160      50:   71   69:   76   45:   66
Setting up quadratic distribution...
ExtMesh (bp) on 0 =   218 x   333 x   242 =    17567748
PhiOnMesh: Number of (b)points on node 0 =              2788884
PhiOnMesh: nlist on node 0 =                    0

stepf: Fermi-Dirac step function

siesta: Program's energy decomposition (eV):
siesta: Ebs     =     -1037.561204
siesta: Eions   =     13324.352826
siesta: Ena     =       162.037066
siesta: Ekin    =      9643.005530
siesta: Enl     =     -6290.999361
siesta: Eso     =         0.000000
siesta: Eldau   =         0.000000
siesta: DEna    =        12.533608
siesta: DUscf   =         1.012621
siesta: DUext   =         0.000000
siesta: Enegf   =         0.000000
siesta: Exc     =     -2587.116528
siesta: eta*DQ  =         0.000000
siesta: Emadel  =         0.000000
siesta: Emeta   =         0.000000
siesta: Emolmec =        -3.000086
siesta: Ekinion =         0.000000
siesta: Eharris =    -12385.270530
siesta: Etot    =    -12386.879977
siesta: FreeEng =    -12386.879977

        iscf     Eharris(eV)        E_KS(eV)     FreeEng(eV)     dDmax    Ef(eV) dHmax(eV)
   scf:    1   -12385.270530   -12386.879977   -12386.879977  0.144682 -3.641905  0.735845
timer: Routine,Calls,Time,% = IterSCF        1      73.265  88.60
   scf:    2   -12386.173593   -12386.688793   -12386.688793  0.047562 -3.528034  1.489578
   scf:    3   -12386.978030   -12386.922675   -12386.922675  0.032543 -3.605204  0.208897
   scf:    4   -12386.927832   -12386.926418   -12386.926418  0.006343 -3.587540  0.027221
   scf:    5   -12386.926412   -12386.926498   -12386.926498  0.001184 -3.589258  0.031159
   scf:    6   -12386.926633   -12386.926590   -12386.926590  0.001116 -3.585797  0.004875
   scf:    7   -12386.926591   -12386.926592   -12386.926592  0.000592 -3.584335  0.008410
   scf:    8   -12386.926597   -12386.926597   -12386.926597  0.000196 -3.583920  0.001778
   scf:    9   -12386.926598   -12386.926598   -12386.926598  0.000126 -3.582843  0.000617
   scf:   10   -12386.926598   -12386.926598   -12386.926598  0.000011 -3.582865  0.000090
   scf:   11   -12386.926598   -12386.926598   -12386.926598  0.000005 -3.582848  0.000066

SCF Convergence by DM+H criterion
max |DM_out - DM_in|         :     0.0000052712
max |H_out - H_in|      (eV) :     0.0000655894
SCF cycle converged after 11 iterations

Using DM_out to compute the final energy and forces
No. of atoms with KB's overlaping orbs in proc 0. Max # of overlaps:      12     155

MM-Stress (kbar):       -0.00       -0.00       -0.00        0.00        0.00        0.00

siesta: E_KS(eV) =           -12386.9266

siesta: E_KS - E_eggbox =    -12386.9266

siesta: Atomic forces (eV/Ang):
     1   -0.439770   -1.129816   -1.721525
     2    0.700903   -1.646485   -1.453504
     3    0.690161    1.777387   -1.894599
     4    1.141526    0.430137    1.712518
     5   -0.736803    0.984790    1.790610
     6   -1.757473   -0.702472    1.905696
     7    1.652686   -0.712036    1.436584
     8   -0.999000    0.745495   -1.774633
     9   -0.666911    2.402019    1.020825
    10    0.242431   -2.577350   -0.105744
    11   -2.406964    0.670164   -0.996509
    12    2.578913   -0.241259    0.079516
----------------------------------------
   Tot   -0.000301    0.000575   -0.000764
----------------------------------------
   Max    2.578913
   Res    1.406852    sqrt( Sum f_i^2 / 3N )
----------------------------------------
   Max    2.578913    constrained

Stress-tensor-Voigt (kbar):       -0.04       -0.04       -0.03       -0.00        0.00        0.00
(Free)E + p*V (eV/cell)   -12362.3966
Target enthalpy (eV/cell)   -12386.9266
 
mulliken: Atomic and Orbital Populations:

Species: Ag                  
Atom  Qatom  Qorb
               5s      5s      4dxy    4dyz    4dz2    4dxz    4dx2-y2 4dxy    
               4dyz    4dz2    4dxz    4dx2-y2 5Ppy    5Ppz    5Ppx    
   1 10.917  -0.143   0.780   1.975   1.982   1.976   1.960   1.955  -0.005
             -0.006  -0.006   0.002   0.000   0.154   0.123   0.171
   2 11.001   0.238   0.546   1.967   1.980   1.970   1.986   1.973  -0.004
             -0.002   0.003  -0.005  -0.005   0.099   0.090   0.164
   3 11.016   0.346   0.484   1.972   1.978   1.970   1.984   1.971  -0.002
             -0.003   0.001  -0.004  -0.002   0.105   0.061   0.156
   4 10.917  -0.142   0.780   1.975   1.959   1.976   1.981   1.955  -0.005
              0.002  -0.006  -0.006   0.000   0.171   0.123   0.153
   5 10.959   0.043   0.679   1.971   1.983   1.969   1.978   1.961  -0.005
             -0.007  -0.001  -0.003  -0.003   0.125   0.104   0.165
   6 11.017   0.347   0.484   1.972   1.984   1.970   1.978   1.971  -0.002
             -0.004   0.001  -0.003  -0.002   0.156   0.060   0.105
   7 11.001   0.238   0.546   1.967   1.986   1.971   1.980   1.973  -0.004
             -0.005   0.003  -0.002  -0.005   0.163   0.091   0.099
   8 10.959   0.045   0.678   1.971   1.978   1.969   1.983   1.961  -0.005
             -0.003  -0.001  -0.007  -0.003   0.164   0.105   0.124
   9 11.052   0.558   0.393   1.974   1.977   1.986   1.970   1.995  -0.005
             -0.005  -0.004   0.004  -0.010   0.063   0.087   0.069
  10 11.054   0.677   0.341   1.975   1.970   1.991   1.985   1.996  -0.004
             -0.004  -0.004   0.001  -0.013   0.044   0.039   0.059
  11 11.052   0.557   0.394   1.975   1.970   1.986   1.977   1.995  -0.005
              0.004  -0.004  -0.005  -0.010   0.069   0.087   0.063
  12 11.054   0.678   0.341   1.975   1.986   1.991   1.970   1.996  -0.004
              0.001  -0.004  -0.004  -0.013   0.059   0.039   0.044

mulliken: Qtot =      132.000

iocg: Reading CG continuation file

                     ====================================
                        Begin CG opt. move =      1
                     ====================================

outcoor: Atomic coordinates (Ang):                          
   12.23047687   11.49942514   11.44499732   1       1  Ag
   14.59935459   12.45844921   10.70859206   1       2  Ag
   14.86135805   15.30510889   10.67174698   1       3  Ag
   14.63963523   13.89583352   12.99944778   1       4  Ag
   12.04655652   13.71394603   13.58111669   1       5  Ag
   10.83747129   11.25420648   13.77808355   1       6  Ag
   13.68568103   11.52189567   13.72642583   1       7  Ag
   12.40549334   14.09530807   10.88005084   1       8  Ag
   13.14670428   16.07978526   12.51995112   1       9  Ag
   12.40767557    9.26956222   13.00252353   1      10  Ag
   10.04831504   12.98659736   11.95259967   1      11  Ag
   16.85521911   13.73571335   11.42297351   1      12  Ag

outcell: Unit cell vectors (Ang):
      100.000000    0.000000    0.000000
        0.000000  100.000000    0.000000
        0.000000    0.000000  100.000000

outcell: Cell vector modules (Ang)   :  100.000000  100.000000  100.000000
outcell: Cell angles (23,13,12) (deg):     90.0000     90.0000     90.0000
outcell: Cell volume (Ang**3)        :1000000.0000
<dSpData1D:S at geom step 1
  <sparsity:sparsity for geom step 1
    nrows_g=180 nrows=2 sparsity=.0110 nnzs=355, refcount: 7>
  <dData1D:(new from dSpData1D) n=355, refcount: 1>
refcount: 1>
new_DM -- step:     2
Re-using DM from previous geometries...
Number of DMs in history: 1
 DM extrapolation coefficients: 
1   1.00000
New DM after history re-use:
<dSpData2D:SpM extrapolated using coords
  <sparsity:sparsity for geom step 1
    nrows_g=180 nrows=2 sparsity=.0110 nnzs=355, refcount: 9>
  <dData2D:(temp array for extrapolation) n=355 m=1, refcount: 1>
refcount: 1>
No. of atoms with KB's overlaping orbs in proc 0. Max # of overlaps:      12     150
New grid distribution:   1
           1       1:  540    1:   54    1:   34
           2       1:  540    1:   54   35:   68
           3       1:  540    1:   54   69:  102
           4       1:  540    1:   54  103:  136
           5       1:  540    1:   54  137:  170
           6       1:  540    1:   54  171:  204
           7       1:  540    1:   54  205:  238
           8       1:  540    1:   54  239:  272
           9       1:  540    1:   54  273:  306
          10       1:  540    1:   54  307:  340
          11       1:  540    1:   54  341:  374
          12       1:  540    1:   54  375:  408
          13       1:  540    1:   54  409:  441
          14       1:  540    1:   54  442:  474
          15       1:  540    1:   54  475:  507
          16       1:  540    1:   54  508:  540
          17       1:  540   55:  108    1:   34
          18       1:  540   55:  108   35:   68
          19       1:  540   55:  108   69:  102
          20       1:  540   55:  108  103:  136
          21       1:  540   55:  108  137:  170
          22       1:  540   55:  108  171:  204
          23       1:  540   55:  108  205:  238
          24       1:  540   55:  108  239:  272
          25       1:  540   55:  108  273:  306
          26       1:  540   55:  108  307:  340
          27       1:  540   55:  108  341:  374
          28       1:  540   55:  108  375:  408
          29       1:  540   55:  108  409:  441
          30       1:  540   55:  108  442:  474
          31       1:  540   55:  108  475:  507
          32       1:  540   55:  108  508:  540
          33       1:  540  109:  162    1:   34
          34       1:  540  109:  162   35:   68
          35       1:  540  109:  162   69:  102
          36       1:  540  109:  162  103:  136
          37       1:  540  109:  162  137:  170
          38       1:  540  109:  162  171:  204
          39       1:  540  109:  162  205:  238
          40       1:  540  109:  162  239:  272
          41       1:  540  109:  162  273:  306
          42       1:  540  109:  162  307:  340
          43       1:  540  109:  162  341:  374
          44       1:  540  109:  162  375:  408
          45       1:  540  109:  162  409:  441
          46       1:  540  109:  162  442:  474
          47       1:  540  109:  162  475:  507
          48       1:  540  109:  162  508:  540
          49       1:  540  163:  216    1:   34
          50       1:  540  163:  216   35:   68
          51       1:  540  163:  216   69:  102
          52       1:  540  163:  216  103:  136
          53       1:  540  163:  216  137:  170
          54       1:  540  163:  216  171:  204
          55       1:  540  163:  216  205:  238
          56       1:  540  163:  216  239:  272
          57       1:  540  163:  216  273:  306
          58       1:  540  163:  216  307:  340
          59       1:  540  163:  216  341:  374
          60       1:  540  163:  216  375:  408
          61       1:  540  163:  216  409:  441
          62       1:  540  163:  216  442:  474
          63       1:  540  163:  216  475:  507
          64       1:  540  163:  216  508:  540
          65       1:  540  217:  270    1:   34
          66       1:  540  217:  270   35:   68
          67       1:  540  217:  270   69:  102
          68       1:  540  217:  270  103:  136
          69       1:  540  217:  270  137:  170
          70       1:  540  217:  270  171:  204
          71       1:  540  217:  270  205:  238
          72       1:  540  217:  270  239:  272
          73       1:  540  217:  270  273:  306
          74       1:  540  217:  270  307:  340
          75       1:  540  217:  270  341:  374
          76       1:  540  217:  270  375:  408
          77       1:  540  217:  270  409:  441
          78       1:  540  217:  270  442:  474
          79       1:  540  217:  270  475:  507
          80       1:  540  217:  270  508:  540
          81       1:  540  271:  324    1:   34
          82       1:  540  271:  324   35:   68
          83       1:  540  271:  324   69:  102
          84       1:  540  271:  324  103:  136
          85       1:  540  271:  324  137:  170
          86       1:  540  271:  324  171:  204
          87       1:  540  271:  324  205:  238
          88       1:  540  271:  324  239:  272
          89       1:  540  271:  324  273:  306
          90       1:  540  271:  324  307:  340
          91       1:  540  271:  324  341:  374
          92       1:  540  271:  324  375:  408
          93       1:  540  271:  324  409:  441
          94       1:  540  271:  324  442:  474
          95       1:  540  271:  324  475:  507
          96       1:  540  271:  324  508:  540
          97       1:  540  325:  378    1:   34
          98       1:  540  325:  378   35:   68
          99       1:  540  325:  378   69:  102
         100       1:  540  325:  378  103:  136
         101       1:  540  325:  378  137:  170
         102       1:  540  325:  378  171:  204
         103       1:  540  325:  378  205:  238
         104       1:  540  325:  378  239:  272
         105       1:  540  325:  378  273:  306
         106       1:  540  325:  378  307:  340
         107       1:  540  325:  378  341:  374
         108       1:  540  325:  378  375:  408
         109       1:  540  325:  378  409:  441
         110       1:  540  325:  378  442:  474
         111       1:  540  325:  378  475:  507
         112       1:  540  325:  378  508:  540
         113       1:  540  379:  432    1:   34
         114       1:  540  379:  432   35:   68
         115       1:  540  379:  432   69:  102
         116       1:  540  379:  432  103:  136
         117       1:  540  379:  432  137:  170
         118       1:  540  379:  432  171:  204
         119       1:  540  379:  432  205:  238
         120       1:  540  379:  432  239:  272
         121       1:  540  379:  432  273:  306
         122       1:  540  379:  432  307:  340
         123       1:  540  379:  432  341:  374
         124       1:  540  379:  432  375:  408
         125       1:  540  379:  432  409:  441
         126       1:  540  379:  432  442:  474
         127       1:  540  379:  432  475:  507
         128       1:  540  379:  432  508:  540
         129       1:  540  433:  486    1:   34
         130       1:  540  433:  486   35:   68
         131       1:  540  433:  486   69:  102
         132       1:  540  433:  486  103:  136
         133       1:  540  433:  486  137:  170
         134       1:  540  433:  486  171:  204
         135       1:  540  433:  486  205:  238
         136       1:  540  433:  486  239:  272
         137       1:  540  433:  486  273:  306
         138       1:  540  433:  486  307:  340
         139       1:  540  433:  486  341:  374
         140       1:  540  433:  486  375:  408
         141       1:  540  433:  486  409:  441
         142       1:  540  433:  486  442:  474
         143       1:  540  433:  486  475:  507
         144       1:  540  433:  486  508:  540
         145       1:  540  487:  540    1:   34
         146       1:  540  487:  540   35:   68
         147       1:  540  487:  540   69:  102
         148       1:  540  487:  540  103:  136
         149       1:  540  487:  540  137:  170
         150       1:  540  487:  540  171:  204
         151       1:  540  487:  540  205:  238
         152       1:  540  487:  540  239:  272
         153       1:  540  487:  540  273:  306
         154       1:  540  487:  540  307:  340
         155       1:  540  487:  540  341:  374
         156       1:  540  487:  540  375:  408
         157       1:  540  487:  540  409:  441
         158       1:  540  487:  540  442:  474
         159       1:  540  487:  540  475:  507
         160       1:  540  487:  540  508:  540

InitMesh: MESH =  1080 x  1080 x  1080 =  1259712000
InitMesh: (bp) =   540 x   540 x   540 =   157464000
InitMesh: Mesh cutoff (required, used) =   300.000   322.366 Ry
ExtMesh (bp) on 0 =   656 x   170 x   150 =    16728000
New grid distribution:   2
           1       1:  102  100:  316  179:  304
           2      62:   71    1:   63    1:   55
           3      62:   73    1:   60   75:   78
           4     240:  540    1:   58   84:  235
           5     106:  540   79:   99  236:  540
           6       1:   59    1:   67   79:   86
           7      60:   73    1:   67   79:   81
           8     240:  540    1:   29  236:  540
           9     109:  269  321:  430  384:  540
          10      74:  239    1:   58  264:  540
          11       1:   61   64:   72    1:   57
          12       1:   60   64:   72   68:   72
          13     109:  269  100:  209  384:  540
          14     240:  540   30:   58  236:  540
          15      79:  540   59:   64   52:   62
          16      72:   78    1:   64   57:   62
          17       1:   63   73:   80   63:   67
          18      84:  540   82:   90   64:   72
          19      74:  239    1:   58   84:  263
          20     103:  269  100:  316   73:  149
          21     106:  540   59:   99   84:  235
          22      79:  540   64:   71   76:   83
          23     270:  377  100:  320  190:  306
          24       1:   63   73:   80   68:   72
          25     106:  540   59:   78  236:  540
          26     270:  377  100:  320  307:  423
          27      80:  540   72:   79   76:   83
          28      74:   78    1:   71   77:   83
          29       1:   59    1:   67   87:  540
          30     270:  377  100:  320  424:  540
          31      82:  540   73:   79   51:   59
          32       1:   60   64:   72   64:   67
          33     202:  540   90:  540    1:   20
          34      61:   71    1:   63   64:   66
          35      65:   75   87:  540   66:   72
          36       1:  102  100:  316   73:  178
          37      79:  540    1:   64    1:   51
          38     378:  540  100:  210  151:  306
          39       1:   64   73:   80    1:   56
          40      72:   77    1:   63   68:   72
          41       1:   61   68:   99   84:  540
          42       1:  108  100:  320  305:  422
          43      72:   78    1:   64    1:   56
          44      72:   77    1:   63   63:   67
          45     378:  540  100:  210  385:  540
          46      74:  105   59:   99   87:  540
          47       1:   61    1:   63   58:   63
          48      62:   73    1:   68   73:   74
          49      76:  201   90:  540    1:   47
          50     202:  540   90:  314   21:   59
          51      76:   83   82:  540   66:   72
          52      74:   78    1:   71   73:   76
          53      82:  540   73:   89    1:   50
          54     103:  269  100:  207  150:  304
          55      82:  540   77:   81   64:   72
          56      74:   79   72:   99   77:   83
          57      60:   73    1:   58   82:  540
          58     109:  269  100:  320  305:  383
          59       1:   60    1:   63   64:   68
          60      62:   73   68:   99   79:   81
          61      79:  540    1:   58   52:   62
          62       1:  108  100:  320  423:  540
          63      79:  540   65:   68   54:   62
          64      63:   73   78:   99   75:   78
          65      79:  540   69:   72   54:   62
          66      84:  540   91:  540   64:   72
          67      63:   73   69:   99   73:   74
          68     378:  540  100:  320   73:  150
          69      79:  540    1:   63   76:   83
          70     103:  269  208:  316  150:  304
          71      82:  540   73:   76   64:   72
          72      74:   79   72:   99   73:   76
          73       1:   63   81:  540   55:   62
          74     378:  540  100:  320  307:  384
          75      82:  540   73:   81   60:   63
          76      64:   75   81:   86   54:   62
          77     109:  269  210:  320  384:  540
          78       1:   61    1:   63    1:   57
          79      78:  540   59:   63   66:   72
          80      76:   81   73:   89   55:   59
          81       1:   63   81:  540    1:   54
          82      76:   83   82:  540   60:   65
          83      62:   71   58:   63   56:   63
          84     270:  377  100:  320   73:  189
          85      79:  540   65:   72    1:   53
          86     378:  540  211:  320  151:  306
          87      79:  540   64:   68   66:   72
          88      61:   71   57:   63   67:   72
          89     109:  269  317:  428  150:  304
          90      78:  540    1:   58   66:   72
          91       1:   60    1:   63   69:   72
          92      65:   75   81:   86   66:   72
          93     378:  540  211:  320  385:  540
          94       1:   64   81:  540   63:   67
          95      79:  540   69:   72   66:   72
          96      62:   71   64:   68   55:   63
          97      79:  540   64:   72   63:   65
          98     202:  540  315:  540   21:   59
          99      63:   73   69:   77   75:   78
         100     109:  269  317:  540   73:  149
         101       1:  108  317:  540   73:  188
         102       1:   64   81:  540   68:   72
         103       1:   61    1:   68   76:   78
         104      62:   73   61:   68   75:   78
         105     270:  378  321:  540  190:  306
         106     379:  540  321:  540  307:  384
         107       1:   61    1:   68   73:   75
         108      76:   81   73:   81   60:   66
         109      62:   73   76:   99   82:  540
         110     270:  378  321:  540  424:  540
         111       1:   61   68:   99   79:   83
         112      62:   71   69:   72   55:   63
         113       1:   62   69:   99   73:   75
         114      84:  540   82:  540   60:   63
         115      65:   75   77:   80   55:   62
         116     270:  378  321:  540   73:  189
         117      79:  540    1:   71   73:   75
         118       1:   62   69:   99   76:   78
         119       1:  108  317:  540  189:  304
         120      65:   75   73:   76   55:   62
         121      78:  540    1:   63   63:   65
         122     270:  378  321:  540  307:  423
         123      76:   81   73:   89    1:   54
         124      64:   75   73:   76   66:   72
         125      80:  540   80:   99   76:   83
         126       1:  108  321:  540  423:  540
         127      62:   71   64:   72    1:   54
         128      72:   78   65:   72   57:   62
         129     379:  540  321:  430  151:  306
         130      76:  201   90:  540   48:   59
         131      65:   75   73:   80    1:   54
         132      64:   75   77:   80   66:   72
         133      60:   73   59:   67   82:  540
         134     109:  269  429:  540  150:  304
         135      62:   71    1:   57   56:   63
         136      61:   71   64:   68   67:   72
         137      64:   75   87:  540   54:   62
         138       1:  108  321:  540  305:  422
         139      74:  105   59:   99   84:   86
         140      76:   81   73:   81   67:   72
         141     109:  269  431:  540  384:  540
         142     379:  540  431:  540  385:  540
         143      61:   71    1:   56   67:   72
         144      72:   78   64:   72   68:   72
         145      64:   75   81:  540    1:   53
         146      65:   75   81:  540   63:   65
         147      72:   78   64:   72   63:   67
         148     379:  540  321:  540   73:  150
         149      62:   73   68:   75   82:  540
         150     379:  540  431:  540  151:  306
         151       1:   61   64:   72   58:   63
         152      61:   71   64:   72   64:   66
         153      82:  540   80:   89   51:   59
         154     109:  269  321:  540  305:  383
         155      72:   78   65:   72    1:   56
         156      64:   75   73:   80   63:   65
         157     379:  540  321:  430  385:  540
         158      80:  540   72:   99   73:   75
         159       1:   64   73:   80   57:   62
         160      61:   71   69:   72   67:   72
New grid distribution:   3
           1     271:  378  397:  540  317:  428
           2      85:  540    1:   60    1:   44
           3      72:   84    1:   60    1:   52
           4     229:  353    1:  126   92:  204
           5       1:  108  397:  540  205:  316
           6      65:  228    1:   54   96:  233
           7       1:   53    1:   54   78:   91
           8      92:  228    1:  126  234:  336
           9     354:  540    1:   63  167:  316
          10       1:  108  397:  540  317:  428
          11      85:  540    1:   52   45:   63
          12       1:   53    1:   54   67:   77
          13     229:  353    1:  126  205:  316
          14     271:  378  397:  540  205:  316
          15      72:  228   74:  251   92:  107
          16       1:   55    1:   58   58:   66
          17      92:  228  127:  188  336:  540
          18      98:  540   91:  197   33:   55
          19       1:   64    1:   73   92:   96
          20     354:  540    1:  126   92:  166
          21     109:  270  469:  540  392:  540
          22     354:  540   64:  126  167:  316
          23       1:   64    1:   73   97:  233
          24      50:   71   59:   76    1:   44
          25     109:  270  397:  468  392:  540
          26      82:  540    1:   47   72:   91
          27     354:  540    1:  126  317:  391
          28      58:   84   77:   91    1:   42
          29     229:  353    1:  126  317:  428
          30     379:  540  397:  468  392:  540
          31      65:  228   55:   73   96:  233
          32       1:   54   77:   92   75:   91
          33      92:  228   64:  126  337:  540
          34      85:   97   77:  197   46:   55
          35     211:  540  100:  320   68:   91
          36       1:   71   74:  251  102:  233
          37      89:  540   61:   76    1:   45
          38     354:  540  127:  189  167:  316
          39       1:   47   55:   76   78:   91
          40      92:  228  127:  251  234:  335
          41       1:   91    1:  126  234:  387
          42       1:   62   93:  540   64:   74
          43     229:  353  127:  251  317:  428
          44      72:   88   61:   76    1:   46
          45      82:  540    1:   57   64:   71
          46     229:  353    1:  126  429:  540
          47     229:  353  127:  251  429:  540
          48      54:   71    1:   40   75:   91
          49      92:  228    1:   63  337:  540
          50       1:   47   55:   76   67:   77
          51      85:  210  100:  540   71:   91
          52     354:  540  127:  251   92:  166
          53     229:  353  127:  251   92:  203
          54      63:   84  103:  540   72:   91
          55     229:  353  127:  251  204:  316
          56      56:   71    1:   42   51:   66
          57      72:  228   74:  162  108:  233
          58       1:   55    1:   58    1:   57
          59     354:  540  127:  251  317:  391
          60       1:   49   59:   76   56:   66
          61     354:  540   64:  126  392:  540
          62       1:   91  127:  251  387:  540
          63      62:   84  103:  540   47:   63
          64       1:   54   77:   92   64:   74
          65     268:  540  198:  540    1:   19
          66     211:  540  100:  540   56:   67
          67       1:   62   93:  540   75:   91
          68       1:   57   77:   91   53:   63
          69      72:  228  163:  251  108:  233
          70      96:  540   86:   99   65:   91
          71      72:   84    1:   60   53:   63
          72       1:   91  127:  251  234:  386
          73     354:  540  190:  251  167:  316
          74      98:  540   77:   90   33:   55
          75      92:  228  189:  251  336:  540
          76      72:   81    1:   57   77:   91
          77     379:  540  252:  324  392:  540
          78     379:  540  469:  540  392:  540
          79       1:   71   74:  251   92:  101
          80      54:   71    1:   54   67:   74
          81     354:  540  127:  188  392:  540
          82      85:  210  100:  540   56:   70
          83      72:   81    1:   57   64:   76
          84     271:  378  252:  396   92:  204
          85      98:  540   77:  197    1:   32
          86     109:  270  252:  324  167:  316
          87      96:  540   77:   85   65:   91
          88      55:   84   77:   92   64:   73
          89     379:  540  252:  324  167:  316
          90      96:  540   77:   99   56:   64
          91       1:  108  252:  396  317:  428
          92      48:   71   55:   76   67:   75
          93     109:  270  252:  324  392:  540
          94     268:  540  198:  369   20:   55
          95      82:  540   48:   57   72:   91
          96      72:   88   61:   76   47:   63
          97       1:   61   92:  540    1:   49
          98      85:   95   77:   99   56:   73
          99     211:  540  321:  540   68:   91
         100       1:  108  252:  396   92:  204
         101     109:  270  252:  396   92:  166
         102     109:  270  325:  396  167:  316
         103      89:  540   58:   67   72:   91
         104      85:   95   77:   99   74:   91
         105     379:  540  325:  396  167:  316
         106      89:  540   68:   76   72:   91
         107     109:  270  252:  396  317:  391
         108      58:   84   77:   84   43:   63
         109     354:  540    1:   63  392:  540
         110     379:  540  325:  396  392:  540
         111      63:   84   93:  540   64:   71
         112      72:   88   58:   76   78:   91
         113      85:  267  198:  540    1:   27
         114     268:  540  370:  540   20:   55
         115      72:   88   58:   76   64:   77
         116     379:  540  252:  396   92:  166
         117     354:  540  189:  251  392:  540
         118     379:  540  397:  468  167:  316
         119      85:   97   77:  197    1:   45
         120      63:   84   93:  102   72:   91
         121     109:  270  397:  468  167:  316
         122      85:  540   53:   60   45:   63
         123     379:  540  252:  396  317:  391
         124      50:   71   59:   67   45:   66
         125       1:   91    1:  126  388:  540
         126     109:  270  325:  396  392:  540
         127      89:  540   58:   76   64:   71
         128      50:   71   68:   76   45:   66
         129      62:   84   92:  540    1:   46
         130      85:  267  198:  540   28:   55
         131      55:   84   77:   84   74:   91
         132     379:  540  397:  540   92:  166
         133     271:  378  397:  540   92:  204
         134     109:  270  469:  540  167:  316
         135      89:  540   61:   68   46:   63
         136      55:   84   85:   92   74:   91
         137       1:  108  252:  396  205:  316
         138      89:  540   69:   76   46:   63
         139     109:  270  397:  540  317:  391
         140      62:   84   92:  102   47:   63
         141     271:  378  252:  396  205:  316
         142       1:  108  397:  540  429:  540
         143       1:   49   59:   76    1:   55
         144      54:   71   41:   54   75:   91
         145      48:   71   66:   76   76:   91
         146       1:   61   92:  540   50:   63
         147     109:  270  397:  540   92:  166
         148       1:  108  397:  540   92:  204
         149     271:  378  252:  396  429:  540
         150     379:  540  469:  540  167:  316
         151      65:  228    1:   73   92:   95
         152      48:   71   55:   65   76:   91
         153       1:  108  252:  396  429:  540
         154      56:   71    1:   58    1:   50
         155     379:  540  397:  540  317:  391
         156      56:   71   43:   58   51:   66
         157     271:  378  252:  396  317:  428
         158     271:  378  397:  540  429:  540
         159       1:   57   77:   91    1:   52
         160      58:   84   85:   91   43:   63
Setting up quadratic distribution...
ExtMesh (bp) on 0 =   218 x   333 x   242 =    17567748
PhiOnMesh: Number of (b)points on node 0 =              2788884
PhiOnMesh: nlist on node 0 =                    0

        iscf     Eharris(eV)        E_KS(eV)     FreeEng(eV)     dDmax    Ef(eV) dHmax(eV)
   scf:    1   -12386.990049   -12386.942062   -12386.942062  0.019389 -3.587412  0.113688
   scf:    2   -12386.876685   -12386.922839   -12386.922839  0.005997 -3.572836  0.328449
   scf:    3   -12386.948213   -12386.943855   -12386.943855  0.004735 -3.583839  0.022249
   scf:    4   -12386.943984   -12386.943936   -12386.943936  0.000559 -3.582998  0.005373
   scf:    5   -12386.943953   -12386.943947   -12386.943947  0.000245 -3.583135  0.002680
   scf:    6   -12386.943948   -12386.943947   -12386.943947  0.000021 -3.583052  0.002015
   scf:    7   -12386.943949   -12386.943949   -12386.943949  0.000139 -3.582757  0.000634
   scf:    8   -12386.943949   -12386.943949   -12386.943949  0.000040 -3.582704  0.000379
   scf:    9   -12386.943949   -12386.943949   -12386.943949  0.000016 -3.582698  0.000081
   scf:   10   -12386.943949   -12386.943949   -12386.943949  0.000003 -3.582697  0.000051

SCF Convergence by DM+H criterion
max |DM_out - DM_in|         :     0.0000032027
max |H_out - H_in|      (eV) :     0.0000509676
SCF cycle converged after 10 iterations

Using DM_out to compute the final energy and forces
No. of atoms with KB's overlaping orbs in proc 0. Max # of overlaps:      12     150

MM-Stress (kbar):       -0.00       -0.00       -0.00        0.00        0.00        0.00

siesta: E_KS(eV) =           -12386.9439

siesta: Atomic forces (eV/Ang):
     1   -0.327030   -1.391921   -1.613548
     2    0.738564   -1.530227   -1.242976
     3    0.786425    1.548498   -2.024736
     4    1.392369    0.322633    1.611888
     5   -0.759389    1.041573    1.801927
     6   -1.526347   -0.800651    2.030547
     7    1.531273   -0.753079    1.222341
     8   -1.058857    0.772387   -1.786792
     9   -0.942061    2.542951    1.162366
    10    0.262640   -2.440853   -0.140487
    11   -2.551285    0.949887   -1.135158
    12    2.454426   -0.260840    0.115723
----------------------------------------
   Tot    0.000729    0.000359    0.001094
----------------------------------------
   Max    2.551285
   Res    1.411391    sqrt( Sum f_i^2 / 3N )
----------------------------------------
   Max    2.551285    constrained

Stress-tensor-Voigt (kbar):       -0.04       -0.04       -0.03        0.00        0.00        0.00
(Free)E + p*V (eV/cell)   -12362.5752
Target enthalpy (eV/cell)   -12386.9439
 
mulliken: Atomic and Orbital Populations:

Species: Ag                  
Atom  Qatom  Qorb
               5s      5s      4dxy    4dyz    4dz2    4dxz    4dx2-y2 4dxy    
               4dyz    4dz2    4dxz    4dx2-y2 5Ppy    5Ppz    5Ppx    
   1 10.924  -0.117   0.762   1.975   1.982   1.976   1.961   1.954  -0.005
             -0.005  -0.006   0.002   0.000   0.154   0.123   0.169
   2 10.998   0.227   0.550   1.966   1.977   1.970   1.986   1.974  -0.003
             -0.001   0.003  -0.004  -0.005   0.101   0.094   0.162
   3 11.015   0.343   0.486   1.971   1.979   1.970   1.984   1.972  -0.001
             -0.003   0.000  -0.004  -0.003   0.105   0.061   0.154
   4 10.925  -0.117   0.761   1.975   1.961   1.976   1.981   1.954  -0.005
              0.002  -0.006  -0.005   0.000   0.169   0.123   0.154
   5 10.958   0.046   0.678   1.971   1.984   1.969   1.979   1.961  -0.005
             -0.007  -0.001  -0.004  -0.003   0.125   0.104   0.162
   6 11.015   0.344   0.486   1.971   1.984   1.970   1.979   1.972  -0.001
             -0.004   0.000  -0.003  -0.003   0.154   0.061   0.106
   7 10.998   0.227   0.550   1.966   1.986   1.971   1.977   1.974  -0.003
             -0.004   0.003  -0.000  -0.005   0.162   0.095   0.100
   8 10.959   0.047   0.678   1.971   1.979   1.969   1.984   1.961  -0.005
             -0.004  -0.001  -0.007  -0.003   0.162   0.105   0.124
   9 11.051   0.551   0.400   1.974   1.977   1.986   1.969   1.995  -0.005
             -0.006  -0.004   0.004  -0.010   0.063   0.087   0.069
  10 11.053   0.678   0.339   1.974   1.971   1.991   1.986   1.996  -0.004
             -0.004  -0.003   0.001  -0.013   0.044   0.039   0.058
  11 11.051   0.550   0.401   1.975   1.969   1.987   1.977   1.995  -0.005
              0.004  -0.004  -0.005  -0.010   0.070   0.087   0.062
  12 11.054   0.679   0.339   1.974   1.986   1.991   1.971   1.997  -0.004
              0.001  -0.003  -0.004  -0.013   0.058   0.039   0.043

mulliken: Qtot =      132.000

                     ====================================
                        Begin CG opt. move =      2
                     ====================================

outcoor: Atomic coordinates (Ang):                          
   12.16228752   11.48383209   11.38639879   1       1  Ag
   14.60843098   12.42035896   10.80212564   1       2  Ag
   14.85546637   15.32731551   10.67480948   1       3  Ag
   14.65533608   13.96380543   13.05723059   1       4  Ag
   12.06971827   13.69479989   13.57430270   1       5  Ag
   10.81681554   11.26140201   13.77723614   1       6  Ag
   13.72373817   11.51394956   13.63161550   1       7  Ag
   12.42626460   14.07106632   10.88706345   1       8  Ag
   13.17928351   16.08391326   12.48391545   1       9  Ag
   12.35591663    9.25850585   13.01944556   1      10  Ag
   10.04539341   12.95124129   11.98764454   1      11  Ag
   16.86481604   13.78538536   11.40665882   1      12  Ag

outcell: Unit cell vectors (Ang):
      100.000000    0.000000    0.000000
        0.000000  100.000000    0.000000
        0.000000    0.000000  100.000000

outcell: Cell vector modules (Ang)   :  100.000000  100.000000  100.000000
outcell: Cell angles (23,13,12) (deg):     90.0000     90.0000     90.0000
outcell: Cell volume (Ang**3)        :1000000.0000
<dSpData1D:S at geom step 2
  <sparsity:sparsity for geom step 2
    nrows_g=180 nrows=2 sparsity=.0110 nnzs=355, refcount: 7>
  <dData1D:(new from dSpData1D) n=355, refcount: 1>
refcount: 1>
new_DM -- step:     3
Re-using DM from previous geometries...
Number of DMs in history: 1
 DM extrapolation coefficients: 
1   1.00000
New DM after history re-use:
<dSpData2D:SpM extrapolated using coords
  <sparsity:sparsity for geom step 2
    nrows_g=180 nrows=2 sparsity=.0110 nnzs=355, refcount: 9>
  <dData2D:(temp array for extrapolation) n=355 m=1, refcount: 1>
refcount: 1>
No. of atoms with KB's overlaping orbs in proc 0. Max # of overlaps:      12     150
New grid distribution:   1
           1       1:  540    1:   54    1:   34
[...]
         119       1:  108  325:  540  190:  306
         120      72:   78   65:   73   57:   62
         121      80:  540   81:  108   76:   84
         122       1:  108  325:  540  307:  423
         123       1:   62   69:  108   76:   78
         124      77:   82   74:   82   66:   72
         125      79:  540    1:   71   73:   75
         126       1:  108  325:  540  424:  540
         127       1:   62   69:  108   73:   75
         128      77:   82   74:   82   59:   65
         129       1:   63   82:  540    1:   54
         130      65:   76   82:  540   63:   65
         131      62:   71   70:   73   55:   63
         132     379:  540  325:  540   73:  150
         133      78:  540    1:   64   63:   65
         134     109:  270  433:  540  151:  306
         135      61:   71    1:   58   56:   63
         136      61:   71   64:   68   67:   72
         137     379:  540  433:  540  151:  306
         138      60:   73   59:   67   82:  540
         139      65:   76   74:   81    1:   53
         140      61:   71   69:   73   67:   72
         141      84:  540   82:   95   50:   58
         142     271:  378  325:  540  424:  540
         143      62:   71   65:   73    1:   54
         144      61:   71   64:   73   64:   66
         145     109:  270  433:  540  385:  540
         146      85:  540   83:  540   59:   63
         147      61:   71    1:   56   67:   72
         148      72:   78   65:   73   63:   67
         149     379:  540  217:  324  151:  306
         150      64:   76   88:  540   54:   62
         151      72:   78   65:   73    1:   56
         152      72:   78   65:   73   68:   72
         153      80:  540   72:  108   73:   75
         154     379:  540  325:  540  307:  384
         155       1:   61   65:   73   58:   63
         156      65:   76   74:   81   63:   65
         157     271:  378  325:  540  307:  423
         158      62:   73   68:   76   82:  540
         159       1:   64   74:   81   57:   62
         160      65:   76   74:   76   66:   72
New grid distribution:   3
           1      85:  209  183:  243  303:  540
           2      85:  540    1:   60    1:   44
           3      72:   84    1:   60    1:   52
           4     210:  342    1:  121   90:  201
           5      98:  540   90:  186   36:   55
           6       1:   53    1:   54   77:   89
           7       1:   84    1:  121  184:  362
           8      85:  209    1:  121  184:  302
           9     379:  540  467:  540  166:  315
          10      62:  209    1:   54   94:  183
          11     342:  540    1:  122  315:  389
          12       1:   53    1:   54   66:   76
          13     342:  540    1:   61  390:  540
          14     379:  540  393:  466  166:  315
          15      85:  540    1:   52   45:   63
          16       1:   55    1:   58   57:   65
          17      85:  209    1:   61  303:  540
          18     109:  270  393:  466  166:  315
          19       1:   61    1:   69   90:   95
          20      69:  209   70:  106   95:  183
          21     109:  270  467:  540  166:  315
          22      82:  540    1:   46   72:   89
          23     210:  342    1:  121  202:  314
          24      49:   71   59:   76    1:   44
          25     379:  540  393:  540  316:  390
          26       1:   61    1:   69   96:  183
          27     210:  341    1:  122  315:  427
          28      58:   84   77:   91    1:   41
          29     342:  540   62:  122  390:  540
          30     379:  540  393:  466  391:  540
          31      89:  540   61:   76    1:   45
          32       1:   46   55:   76   77:   89
          33     379:  540  467:  540  391:  540
          34     190:  540   99:  540   56:   67
          35      72:   88   61:   76    1:   47
          36       1:   68   70:  243   97:  183
          37     343:  540    1:  121   90:  164
          38      82:  540    1:   57   64:   71
          39     210:  342  122:  243  203:  314
          40       1:   53   77:   92   75:   89
          41      62:  209   55:   69   94:  183
          42      85:  209  122:  182  303:  540
          43     210:  341  123:  243  315:  427
          44      54:   71    1:   39   74:   89
          45     342:  540  123:  182  390:  540
          46     210:  341    1:  122  428:  540
          47       1:   55    1:   58    1:   56
          48       1:   46   55:   76   66:   76
          49     271:  378  393:  540  429:  540
          50      85:   97   77:  186   45:   55
          51      85:  189   99:  540   70:   89
          52     210:  342  122:  243   90:  202
          53       1:  108  393:  540  429:  540
          54      63:   84  104:  540   72:   89
          55       1:   84  122:  243  184:  362
          56      56:   71    1:   41   50:   65
          57      62:   84  103:  540   47:   63
          58       1:   48   59:   76   55:   65
          59     342:  540  123:  243  315:  389
          60       1:   84  122:  243  363:  540
          61     342:  540  183:  243  390:  540
          62     210:  341  123:  243  428:  540
          63      97:  540   86:   98   65:   89
          64       1:   57   77:   91   53:   63
          65     268:  540  187:  540    1:   19
          66      85:  209   62:  121  303:  540
          67       1:   62   93:  540   75:   89
          68       1:   53   77:   92   64:   74
          69       1:  108  244:  392   90:  202
          70     343:  540   62:  121  165:  314
          71      69:  209   70:  243   90:   94
          72      72:   84    1:   60   53:   63
          73     271:  378  244:  392  203:  315
          74      69:  209  107:  243   95:  183
          75      98:  540   77:   89   36:   55
          76      72:   81    1:   57   76:   89
          77     379:  540  244:  318  391:  540
          78     190:  540   99:  319   68:   89
          79      97:  540   77:   85   65:   89
          80      54:   71    1:   54   66:   73
          81       1:   61   92:  540    1:   50
          82      85:  267  187:  540   29:   55
          83      72:   81    1:   57   64:   75
          84     379:  540  244:  392   90:  165
          85      82:  540   47:   57   72:   89
          86     379:  540  244:  318  166:  315
          87     109:  270  319:  392  166:  315
          88      58:   84   77:   84   42:   63
          89     109:  270  244:  318  166:  315
          90      98:  540   77:  186    1:   35
          91      97:  540   77:   98   56:   64
          92      85:   96   77:   98   73:   89
          93     109:  270  244:  318  391:  540
          94     271:  378  244:  392  429:  540
          95      90:  540   58:   67   71:   89
          96      85:   96   77:   98   56:   72
          97      62:   84   92:  540    1:   46
          98     268:  540  187:  363   20:   55
          99      54:   84   77:   92   64:   72
         100     109:  270  244:  392   90:  165
         101       1:   68   70:  243   90:   96
         102     379:  540  319:  392  166:  315
         103       1:  108  244:  392  203:  315
         104      72:   89   58:   76   77:   89
         105      63:   84   93:  540   64:   71
         106      72:   89   58:   76   64:   76
         107     271:  378  244:  392  316:  428
         108     379:  540  319:  392  391:  540
         109       1:  108  244:  392  316:  428
         110       1:  108  244:  392  429:  540
         111      90:  540   68:   76   71:   89
         112      47:   71   55:   65   74:   89
         113      47:   71   55:   76   66:   73
         114     268:  540  364:  540   20:   55
         115       1:   62   93:  540   64:   74
         116     271:  378  244:  392   90:  202
         117      85:  209  122:  243  184:  302
         118       1:  108  393:  540   90:  202
         119      85:  540   53:   60   45:   63
         120      47:   71   66:   76   74:   89
         121      85:  267  187:  540    1:   28
         122      89:  540   69:   76   46:   63
         123     109:  270  393:  540  316:  390
         124      63:   84   93:  103   72:   89
         125     343:  540  183:  243  165:  314
         126     109:  270  319:  392  391:  540
         127      89:  540   61:   68   46:   63
         128      56:   71   42:   58   50:   65
         129      72:   88   61:   76   48:   63
         130      85:  189   99:  540   56:   69
         131     271:  378  393:  540   90:  202
         132     109:  270  393:  540   90:  165
         133     343:  540  122:  182  165:  314
         134      85:   97   77:  186    1:   44
         135     271:  378  393:  540  203:  315
         136      49:   71   68:   76   45:   65
         137     343:  540    1:   61  165:  314
         138      90:  540   58:   76   64:   70
         139     271:  378  393:  540  316:  428
         140      49:   71   59:   67   45:   65
         141     343:  540  122:  243   90:  164
         142     109:  270  393:  466  391:  540
         143       1:   48   59:   76    1:   54
         144      54:   71   40:   54   74:   89
         145      62:   84   92:  102   47:   63
         146       1:   61   92:  540   51:   63
         147     190:  540  320:  540   68:   89
         148     379:  540  393:  540   90:  165
         149     379:  540  244:  392  316:  390
         150      56:   71    1:   58    1:   49
         151       1:  108  393:  540  203:  315
         152      54:   84   77:   84   73:   89
         153     109:  270  244:  392  316:  390
         154       1:   57   77:   91    1:   52
         155       1:  108  393:  540  316:  428
         156      54:   84   85:   92   73:   89
         157       1:   84    1:  121  363:  540
         158     109:  270  467:  540  391:  540
         159      62:  209    1:   69   90:   93
         160      58:   84   85:   91   42:   63
Setting up quadratic distribution...
ExtMesh (bp) on 0 =   578 x   180 x   167 =    17374680
PhiOnMesh: Number of (b)points on node 0 =              1507968
PhiOnMesh: nlist on node 0 =                75366

        iscf     Eharris(eV)        E_KS(eV)     FreeEng(eV)     dDmax    Ef(eV) dHmax(eV)
   scf:    1   -12389.524051   -12389.524192   -12389.524192  0.000999 -3.587207  0.019554
   scf:    2   -12389.522703   -12389.523747   -12389.523747  0.001678 -3.585568  0.072127
   scf:    3   -12389.524321   -12389.524224   -12389.524224  0.001333 -3.586876  0.002206
   scf:    4   -12389.524225   -12389.524225   -12389.524225  0.000043 -3.586890  0.000924
   scf:    5   -12389.524225   -12389.524225   -12389.524225  0.000025 -3.587014  0.000139
   scf:    6   -12389.524225   -12389.524225   -12389.524225  0.000003 -3.587018  0.000087

SCF Convergence by DM+H criterion
max |DM_out - DM_in|         :     0.0000033107
max |H_out - H_in|      (eV) :     0.0000865192
SCF cycle converged after 6 iterations

Using DM_out to compute the final energy and forces
No. of atoms with KB's overlaping orbs in proc 0. Max # of overlaps:      12     145

MM-Stress (kbar):        0.00        0.00        0.00        0.00       -0.00       -0.00

siesta: E_KS(eV) =           -12389.5242

siesta: Atomic forces (eV/Ang):
     1   -0.001621    0.000319    0.007876
     2    0.007006    0.002330   -0.003261
     3   -0.005386   -0.001594    0.003850
     4   -0.003574    0.002050   -0.006453
     5   -0.005024    0.001825   -0.001383
     6    0.003102    0.004601   -0.002907
     7   -0.004209   -0.007410    0.002717
     8   -0.001154    0.007285    0.001342
     9    0.007938    0.001434   -0.000571
    10    0.004577    0.000202   -0.001550
    11   -0.003726   -0.008363   -0.000065
    12    0.001023   -0.005077    0.001253
----------------------------------------
   Tot   -0.001046   -0.002398    0.000850
----------------------------------------
   Max    0.008363
   Res    0.004222    sqrt( Sum f_i^2 / 3N )
----------------------------------------
   Max    0.008363    constrained

Stress-tensor-Voigt (kbar):       -0.00       -0.00       -0.00        0.00        0.00        0.00
(Free)E + p*V (eV/cell)   -12389.5002
Target enthalpy (eV/cell)   -12389.5242
 
mulliken: Atomic and Orbital Populations:

Species: Ag                  
Atom  Qatom  Qorb
               5s      5s      4dxy    4dyz    4dz2    4dxz    4dx2-y2 4dxy    
               4dyz    4dz2    4dxz    4dx2-y2 5Ppy    5Ppz    5Ppx    
   1 10.962   0.048   0.580   1.968   1.974   1.969   1.963   1.952   0.007
              0.006   0.006   0.010   0.009   0.172   0.122   0.175
   2 10.985   0.196   0.524   1.964   1.969   1.968   1.982   1.968   0.006
              0.006   0.007   0.003   0.004   0.109   0.103   0.175
   3 11.009   0.384   0.409   1.971   1.982   1.969   1.981   1.970   0.005
              0.002   0.005   0.003   0.004   0.104   0.061   0.160
   4 10.962   0.048   0.580   1.968   1.963   1.969   1.974   1.952   0.007
              0.010   0.006   0.006   0.009   0.176   0.122   0.171
   5 10.979   0.128   0.571   1.965   1.981   1.965   1.976   1.958   0.005
              0.002   0.007   0.004   0.006   0.136   0.103   0.172
   6 11.009   0.384   0.409   1.971   1.981   1.969   1.982   1.970   0.005
              0.003   0.005   0.002   0.004   0.160   0.061   0.104
   7 10.985   0.196   0.524   1.964   1.982   1.968   1.969   1.969   0.006
              0.003   0.007   0.006   0.004   0.175   0.103   0.109
   8 10.979   0.127   0.571   1.965   1.976   1.965   1.981   1.958   0.005
              0.004   0.007   0.002   0.006   0.172   0.103   0.136
   9 11.026   0.561   0.353   1.977   1.975   1.988   1.975   1.990  -0.000
              0.001  -0.000   0.004  -0.003   0.062   0.081   0.063
  10 11.039   0.699   0.289   1.977   1.976   1.992   1.991   1.994  -0.001
             -0.002  -0.002  -0.001  -0.006   0.049   0.035   0.050
  11 11.026   0.560   0.354   1.977   1.975   1.988   1.975   1.990  -0.000
              0.004  -0.000   0.001  -0.003   0.063   0.081   0.062
  12 11.039   0.699   0.289   1.977   1.991   1.992   1.976   1.994  -0.001
             -0.001  -0.002  -0.002  -0.006   0.050   0.035   0.049

mulliken: Qtot =      132.000

outcoor: Relaxed atomic coordinates (Ang):                  
   12.00897365   11.30332939   11.28223286   1       1  Ag
   14.68316979   12.36288132   10.87252938   1       2  Ag
   14.96400679   15.38035980   10.52787321   1       3  Ag
   14.83340762   14.11787978   13.16201632   1       4  Ag
   12.02728640   13.78517666   13.67800310   1       5  Ag
   10.76546250   11.15187345   13.92409083   1       6  Ag
   13.78087707   11.43931439   13.56019286   1       7  Ag
   12.33410472   14.11345365   10.78511552   1       8  Ag
   13.05516707   16.33538823   12.49572794   1       9  Ag
   12.35005689    8.95689746   12.98275915   1      10  Ag
    9.79449141   13.07431902   11.97794737   1      11  Ag
   17.16775175   13.79272770   11.44292057   1      12  Ag

coxmol: Writing XMOL coordinates into file ag12.xyz                                                            
Writing WFSX for selected k-points in ag12.selected.WFSX
 
writewave: Wave Functions Coefficients
 
     Number of k-points =        1
        Number of Spins =        1
   Number of basis orbs =      180
 
 
            k-point =        1    0.000000  0.000000  0.000000
     Spin component =        1
 Num. wavefunctions =      162
Use readwfsx utility to print wavefunction coefficients from WFSX file
Writing WFSX for COOP/COHP in ag12.fullBZ.WFSX
 
writewave: Wave Functions Coefficients
 
     Number of k-points =        1
        Number of Spins =        1
   Number of basis orbs =      180
 
 
            k-point =        1    0.000000  0.000000  0.000000
     Spin component =        1
 Num. wavefunctions =      180
Use readwfsx utility to print wavefunction coefficients from WFSX file

siesta: Eigenvalues (eV):
  ik is    eps
   1  1  -8.91  -8.90  -8.88  -8.87  -8.81  -8.75  -8.71  -8.69  -8.64  -8.62
         -8.60  -8.56  -8.54  -8.50  -8.41  -8.35  -8.30  -8.29  -8.26  -8.19
         -8.18  -8.13  -8.09  -8.06  -7.96  -7.90  -7.88  -7.81  -7.76  -7.75
         -7.71  -7.65  -7.65  -7.62  -7.61  -7.56  -7.54  -7.52  -7.50  -7.49
         -7.47  -7.45  -7.43  -7.43  -7.39  -7.39  -7.35  -7.34  -7.31  -7.28
         -7.22  -7.21  -7.20  -7.20  -7.16  -7.15  -7.12  -7.10  -7.07  -7.05
         -6.98  -6.02  -5.14  -4.44  -4.12  -4.12  -3.08  -2.71  -2.44  -2.18
         -2.17  -1.81  -1.73  -1.22  -1.07  -0.64  -0.57  -0.39  -0.18  -0.14
          0.08   0.79   0.80   1.31   1.51   2.29   2.31   2.84   3.07   3.35
          3.38   3.39   3.62   4.05   4.11   4.37   4.61   4.97   5.21   5.33
          5.99   6.15   6.87   7.18   7.79   8.32   8.58   8.59   8.94   9.36
          9.72   9.91  10.09  10.27  10.83  11.92  12.46  12.92  14.22  14.49
         19.62  19.87  20.96  21.62  21.82  22.16  22.37  22.83  23.29  23.46
         23.73  23.96  24.44  24.73  25.01  25.22  25.92  26.42  26.45  26.92
         27.19  27.20  27.62  28.12  28.62  28.74  29.33  29.56  29.86  30.32
         30.62  31.01  31.94  32.69  32.86  33.04  33.31  33.69  34.20  35.18
         35.45  37.10  37.36  38.03  38.18  39.33  39.37  39.82  39.90  40.48
         41.09  41.26  41.93  42.03  42.20  43.12  43.68  43.93  44.20  44.48
siesta: Fermi energy =      -3.587018 eV

siesta: Program's energy decomposition (eV):
siesta: Ebs     =     -1006.621770
siesta: Eions   =     13324.352826
siesta: Ena     =       166.787848
siesta: Ekin    =      9634.782822
siesta: Enl     =     -6302.798015
siesta: Eso     =         0.000000
siesta: Eldau   =         0.000000
siesta: DEna    =        13.941870
siesta: DUscf   =         1.047785
siesta: DUext   =         0.000000
siesta: Enegf   =         0.000000
siesta: Exc     =     -2575.840438
siesta: eta*DQ  =         0.000000
siesta: Emadel  =         0.000000
siesta: Emeta   =         0.000000
siesta: Emolmec =        -3.093270
siesta: Ekinion =         0.000000
siesta: Eharris =    -12389.524225
siesta: Etot    =    -12389.524225
siesta: FreeEng =    -12389.524225

siesta: Final energy (eV):
siesta:  Band Struct. =   -1006.621770
siesta:       Kinetic =    9634.782822
siesta:       Hartree =   38025.882195
siesta:       Eldau   =       0.000000
siesta:       Eso     =       0.000000
siesta:    Ext. field =       0.000000
siesta:       Enegf   =       0.000000
siesta:   Exch.-corr. =   -2575.840438
siesta:  Ion-electron =  -84092.884130
siesta:       Ion-ion =   26621.628596
siesta:       Ekinion =       0.000000
siesta:         Total =  -12389.524225
siesta:         Fermi =      -3.587018

siesta: Stress tensor (static) (eV/Ang**3):
siesta:    -0.000000    0.000000    0.000000
siesta:     0.000000   -0.000000    0.000000
siesta:     0.000000    0.000000   -0.000000

siesta: Cell volume =    1000000.000000 Ang**3

siesta: Pressure (static):
siesta:                Solid            Molecule  Units
siesta:           0.00000000          0.00000000  Ry/Bohr**3
siesta:           0.00000002          0.00000003  eV/Ang**3
siesta:           0.00003851          0.00004345  kBar
(Free)E+ p_basis*V_orbitals  =      -12365.798339
(Free)Eharris+ p_basis*V_orbitals  =      -12365.798339

siesta: Electric dipole (a.u.)  =    0.008915   -0.008852   -0.000056
siesta: Electric dipole (Debye) =    0.022659   -0.022499   -0.000142

siesta: Macroscopic polarization per unit cell (a.u.):
siesta: Along the lattice vectors   3401.517344 3401.499481 3023.562946
siesta: Along cartesian directions  3401.517344 3401.499481 3023.562946

siesta: Macroscopic polarization per unit cell (Debye):
siesta: Along the lattice vectors   8645.800635 8645.755233 7685.135720
siesta: Along cartesian directions  8645.800635 8645.755233 7685.135720
Bader Analysis core-charge setup. Radii (standard, H):  1.000 0.600

dhscf: Vacuum level (max, mean) =    0.092001   -0.000226 eV
>> End of run:   3-JUL-2021  19:58:08
Job completed
